 cputime      unlimited
 filesize     unlimited
 datasize     unlimited
 stacksize    unlimited
 coredumpsize 0 kbytes
 memoryuse    unlimited
 vmemoryuse   unlimited
 descriptors  1024 
 memorylocked 32 kbytes
 maxproc      192753 
 Sun Jan  5 02:03:26 IST 2014
 quanta12
 
        *=*=*=*=*=*=*=*=*=*=*=*=*=*=*=*=*
        * xrung09: Running g09          *
        * (Command = time /bin/nice g09 *
        *=*=*=*=*=*=*=*=*=*=*=*=*=*=*=*=*
        g09root=/private/chem
        g09 = /private/chem/g09/g09
 
 Entering Gaussian System, Link 0=g09
 Initial command:
 /private/chem/g09/l1.exe /var/spool/scratch/pshety/g09/NADH_1/Gau-11994.inp -scrdir=/var/spool/scratch/pshety/g09/NADH_1/
 Entering Link 1 = /private/chem/g09/l1.exe PID=     11995.
  
 Copyright (c) 1988,1990,1992,1993,1995,1998,2003,2009, Gaussian, Inc.
                  All Rights Reserved.
  
 This is part of the Gaussian(R) 09 program.  It is based on
 the Gaussian(R) 03 system (copyright 2003, Gaussian, Inc.),
 the Gaussian(R) 98 system (copyright 1998, Gaussian, Inc.),
 the Gaussian(R) 94 system (copyright 1995, Gaussian, Inc.),
 the Gaussian 92(TM) system (copyright 1992, Gaussian, Inc.),
 the Gaussian 90(TM) system (copyright 1990, Gaussian, Inc.),
 the Gaussian 88(TM) system (copyright 1988, Gaussian, Inc.),
 the Gaussian 86(TM) system (copyright 1986, Carnegie Mellon
 University), and the Gaussian 82(TM) system (copyright 1983,
 Carnegie Mellon University). Gaussian is a federally registered
 trademark of Gaussian, Inc.
  
 This software contains proprietary and confidential information,
 including trade secrets, belonging to Gaussian, Inc.
  
 This software is provided under written license and may be
 used, copied, transmitted, or stored only in accord with that
 written license.
  
 The following legend is applicable only to US Government
 contracts under FAR:
  
                    RESTRICTED RIGHTS LEGEND
  
 Use, reproduction and disclosure by the US Government is
 subject to restrictions as set forth in subparagraphs (a)
 and (c) of the Commercial Computer Software - Restricted
 Rights clause in FAR 52.227-19.
  
 Gaussian, Inc.
 340 Quinnipiac St., Bldg. 40, Wallingford CT 06492
  
  
 ---------------------------------------------------------------
 Warning -- This program may not be used in any manner that
 competes with the business of Gaussian, Inc. or will provide
 assistance to any competitor of Gaussian, Inc.  The licensee
 of this program is prohibited from giving any competitor of
 Gaussian, Inc. access to this program.  By using this program,
 the user acknowledges that Gaussian, Inc. is engaged in the
 business of creating and licensing software in the field of
 computational chemistry and represents and warrants to the
 licensee that it is not a competitor of Gaussian, Inc. and that
 it will not use this program in any manner prohibited above.
 ---------------------------------------------------------------
  

 Cite this work as:
 Gaussian 09, Revision A.02,
 M. J. Frisch, G. W. Trucks, H. B. Schlegel, G. E. Scuseria, 
 M. A. Robb, J. R. Cheeseman, G. Scalmani, V. Barone, B. Mennucci, 
 G. A. Petersson, H. Nakatsuji, M. Caricato, X. Li, H. P. Hratchian, 
 A. F. Izmaylov, J. Bloino, G. Zheng, J. L. Sonnenberg, M. Hada, 
 M. Ehara, K. Toyota, R. Fukuda, J. Hasegawa, M. Ishida, T. Nakajima, 
 Y. Honda, O. Kitao, H. Nakai, T. Vreven, J. A. Montgomery, Jr., 
 J. E. Peralta, F. Ogliaro, M. Bearpark, J. J. Heyd, E. Brothers, 
 K. N. Kudin, V. N. Staroverov, R. Kobayashi, J. Normand, 
 K. Raghavachari, A. Rendell, J. C. Burant, S. S. Iyengar, J. Tomasi, 
 M. Cossi, N. Rega, J. M. Millam, M. Klene, J. E. Knox, J. B. Cross, 
 V. Bakken, C. Adamo, J. Jaramillo, R. Gomperts, R. E. Stratmann, 
 O. Yazyev, A. J. Austin, R. Cammi, C. Pomelli, J. W. Ochterski, 
 R. L. Martin, K. Morokuma, V. G. Zakrzewski, G. A. Voth, 
 P. Salvador, J. J. Dannenberg, S. Dapprich, A. D. Daniels, 
 O. Farkas, J. B. Foresman, J. V. Ortiz, J. Cioslowski, 
 and D. J. Fox, Gaussian, Inc., Wallingford CT, 2009.
 
 ******************************************
 Gaussian 09:  EM64L-G09RevA.02 11-Jun-2009
                 5-Jan-2014 
 ******************************************
 %Mem=2500MB
 %nproc=4
 Will use up to    4 processors via shared memory.
 %chk=/home/qnt/pshety/error_function/errorMR/GaussFiles/NADH/./NADH.chk
 -----------------------------
 # AM1 Opt Freq=(scale=0.9532)
 -----------------------------
 1/14=-1,18=20,19=15,26=1,38=1,113=953200/1,3;
 2/9=110,12=2,17=6,18=5,40=1/2;
 3/5=2,16=1,25=1,41=700000,71=1/1,2,3;
 4/35=1/1;
 5/5=2,35=1,38=5/2;
 6/7=2,8=2,9=2,10=2,28=1/1;
 7//1,2,3,16;
 1/14=-1,18=20,19=15/3(2);
 2/9=110/2;
 99//99;
 2/9=110/2;
 3/5=2,16=1,25=1,41=700000,71=1,135=20/1,2,3;
 4/5=5,16=3,35=1/1;
 5/5=2,35=1,38=5/2;
 7//1,2,3,16;
 1/14=-1,18=20,19=15/3(-5);
 2/9=110/2;
 6/7=2,8=2,9=2,10=2,19=2,28=1/1;
 99/9=1/99;
 -------------------
 Title Card Required
 -------------------
 Symbolic Z-matrix:
 Charge =  0 Multiplicity = 1
 C                    -1.23948   0.40158   0.21852 
 C                    -0.09866  -0.23044  -0.15046 
 C                     1.03617   0.55168  -0.82283 
 C                     1.01865   1.99786  -0.31304 
 C                    -0.14855   2.57725   0.05977 
 N                    -1.4299    1.8472   -0.01435 
 H                     1.97506   0.09847  -0.58202 
 H                    -2.02056  -0.16009   0.68685 
 H                     1.93186   2.5521   -0.25172 
 H                    -0.14165   3.58709   0.41343 
 C                     0.0584   -1.74075   0.10621 
 O                    -0.87119  -2.38529   0.65758 
 N                     1.29422  -2.4295   -0.29288 
 H                     1.08686  -3.38079  -0.52104 
 H                     1.68716  -1.97326  -1.09127 
 C                    -2.33373   2.37569   1.01748 
 H                    -1.89777   2.22756   1.98335 
 H                    -2.48989   3.42141   0.85322 
 H                    -3.27142   1.86277   0.96695 
 H                     0.89883   0.54312  -1.88394 
 

 GradGradGradGradGradGradGradGradGradGradGradGradGradGradGradGradGradGrad
 Berny optimization.
 Initialization pass.
                           ----------------------------
                           !    Initial Parameters    !
                           ! (Angstroms and Degrees)  !
 --------------------------                            --------------------------
 ! Name  Definition              Value          Derivative Info.                !
 --------------------------------------------------------------------------------
 ! R1    R(1,2)                  1.3554         estimate D2E/DX2                !
 ! R2    R(1,6)                  1.4766         estimate D2E/DX2                !
 ! R3    R(1,8)                  1.07           estimate D2E/DX2                !
 ! R4    R(2,3)                  1.5335         estimate D2E/DX2                !
 ! R5    R(2,11)                 1.54           estimate D2E/DX2                !
 ! R6    R(3,4)                  1.5335         estimate D2E/DX2                !
 ! R7    R(3,7)                  1.07           estimate D2E/DX2                !
 ! R8    R(3,20)                 1.07           estimate D2E/DX2                !
 ! R9    R(4,5)                  1.3554         estimate D2E/DX2                !
 ! R10   R(4,9)                  1.07           estimate D2E/DX2                !
 ! R11   R(5,6)                  1.4766         estimate D2E/DX2                !
 ! R12   R(5,10)                 1.07           estimate D2E/DX2                !
 ! R13   R(6,16)                 1.47           estimate D2E/DX2                !
 ! R14   R(11,12)                1.2584         estimate D2E/DX2                !
 ! R15   R(11,13)                1.47           estimate D2E/DX2                !
 ! R16   R(13,14)                1.0            estimate D2E/DX2                !
 ! R17   R(13,15)                1.0            estimate D2E/DX2                !
 ! R18   R(16,17)                1.07           estimate D2E/DX2                !
 ! R19   R(16,18)                1.07           estimate D2E/DX2                !
 ! R20   R(16,19)                1.07           estimate D2E/DX2                !
 ! A1    A(2,1,6)              121.4757         estimate D2E/DX2                !
 ! A2    A(2,1,8)              119.2619         estimate D2E/DX2                !
 ! A3    A(6,1,8)              119.2623         estimate D2E/DX2                !
 ! A4    A(1,2,3)              120.2927         estimate D2E/DX2                !
 ! A5    A(1,2,11)             119.8536         estimate D2E/DX2                !
 ! A6    A(3,2,11)             119.8537         estimate D2E/DX2                !
 ! A7    A(2,3,4)              109.0722         estimate D2E/DX2                !
 ! A8    A(2,3,7)              109.5513         estimate D2E/DX2                !
 ! A9    A(2,3,20)             109.6182         estimate D2E/DX2                !
 ! A10   A(4,3,7)              109.5513         estimate D2E/DX2                !
 ! A11   A(4,3,20)             109.6182         estimate D2E/DX2                !
 ! A12   A(7,3,20)             109.416          estimate D2E/DX2                !
 ! A13   A(3,4,5)              120.2927         estimate D2E/DX2                !
 ! A14   A(3,4,9)              119.8537         estimate D2E/DX2                !
 ! A15   A(5,4,9)              119.8536         estimate D2E/DX2                !
 ! A16   A(4,5,6)              121.4757         estimate D2E/DX2                !
 ! A17   A(4,5,10)             119.2619         estimate D2E/DX2                !
 ! A18   A(6,5,10)             119.2623         estimate D2E/DX2                !
 ! A19   A(1,6,5)              111.3597         estimate D2E/DX2                !
 ! A20   A(1,6,16)             108.6973         estimate D2E/DX2                !
 ! A21   A(5,6,16)             108.6973         estimate D2E/DX2                !
 ! A22   A(2,11,12)            120.0            estimate D2E/DX2                !
 ! A23   A(2,11,13)            120.0            estimate D2E/DX2                !
 ! A24   A(12,11,13)           120.0            estimate D2E/DX2                !
 ! A25   A(11,13,14)           109.4712         estimate D2E/DX2                !
 ! A26   A(11,13,15)           109.4712         estimate D2E/DX2                !
 ! A27   A(14,13,15)           109.4712         estimate D2E/DX2                !
 ! A28   A(6,16,17)            109.4712         estimate D2E/DX2                !
 ! A29   A(6,16,18)            109.4712         estimate D2E/DX2                !
 ! A30   A(6,16,19)            109.4712         estimate D2E/DX2                !
 ! A31   A(17,16,18)           109.4712         estimate D2E/DX2                !
 ! A32   A(17,16,19)           109.4712         estimate D2E/DX2                !
 ! A33   A(18,16,19)           109.4712         estimate D2E/DX2                !
 ! D1    D(6,1,2,3)              0.1805         estimate D2E/DX2                !
 ! D2    D(6,1,2,11)          -179.7976         estimate D2E/DX2                !
 ! D3    D(8,1,2,3)           -179.9725         estimate D2E/DX2                !
 ! D4    D(8,1,2,11)             0.0494         estimate D2E/DX2                !
 ! D5    D(2,1,6,5)            -31.6201         estimate D2E/DX2                !
 ! D6    D(2,1,6,16)          -151.339          estimate D2E/DX2                !
 ! D7    D(8,1,6,5)            148.5329         estimate D2E/DX2                !
 ! D8    D(8,1,6,16)            28.814          estimate D2E/DX2                !
 ! D9    D(1,2,3,4)             30.2853         estimate D2E/DX2                !
 ! D10   D(1,2,3,7)            150.1883         estimate D2E/DX2                !
 ! D11   D(1,2,3,20)           -89.7398         estimate D2E/DX2                !
 ! D12   D(11,2,3,4)          -149.7366         estimate D2E/DX2                !
 ! D13   D(11,2,3,7)           -29.8336         estimate D2E/DX2                !
 ! D14   D(11,2,3,20)           90.2382         estimate D2E/DX2                !
 ! D15   D(1,2,11,12)           -0.0109         estimate D2E/DX2                !
 ! D16   D(1,2,11,13)          179.9891         estimate D2E/DX2                !
 ! D17   D(3,2,11,12)         -179.9891         estimate D2E/DX2                !
 ! D18   D(3,2,11,13)            0.0109         estimate D2E/DX2                !
 ! D19   D(2,3,4,5)            -30.2856         estimate D2E/DX2                !
 ! D20   D(2,3,4,9)            149.7374         estimate D2E/DX2                !
 ! D21   D(7,3,4,5)           -150.1886         estimate D2E/DX2                !
 ! D22   D(7,3,4,9)             29.8344         estimate D2E/DX2                !
 ! D23   D(20,3,4,5)            89.7395         estimate D2E/DX2                !
 ! D24   D(20,3,4,9)           -90.2375         estimate D2E/DX2                !
 ! D25   D(3,4,5,6)             -0.1799         estimate D2E/DX2                !
 ! D26   D(3,4,5,10)           179.9731         estimate D2E/DX2                !
 ! D27   D(9,4,5,6)            179.7971         estimate D2E/DX2                !
 ! D28   D(9,4,5,10)            -0.0499         estimate D2E/DX2                !
 ! D29   D(4,5,6,1)             31.6198         estimate D2E/DX2                !
 ! D30   D(4,5,6,16)           151.3387         estimate D2E/DX2                !
 ! D31   D(10,5,6,1)          -148.5331         estimate D2E/DX2                !
 ! D32   D(10,5,6,16)          -28.8143         estimate D2E/DX2                !
 ! D33   D(1,6,16,17)           60.682          estimate D2E/DX2                !
 ! D34   D(1,6,16,18)         -179.318          estimate D2E/DX2                !
 ! D35   D(1,6,16,19)          -59.318          estimate D2E/DX2                !
 ! D36   D(5,6,16,17)          -60.682          estimate D2E/DX2                !
 ! D37   D(5,6,16,18)           59.318          estimate D2E/DX2                !
 ! D38   D(5,6,16,19)          179.318          estimate D2E/DX2                !
 ! D39   D(2,11,13,14)        -150.0            estimate D2E/DX2                !
 ! D40   D(2,11,13,15)         -30.0            estimate D2E/DX2                !
 ! D41   D(12,11,13,14)         30.0            estimate D2E/DX2                !
 ! D42   D(12,11,13,15)        150.0            estimate D2E/DX2                !
 --------------------------------------------------------------------------------
 Trust Radius=3.00D-01 FncErr=1.00D-07 GrdErr=1.00D-07
 Number of steps in this run= 105 maximum allowed number of steps= 120.
 GradGradGradGradGradGradGradGradGradGradGradGradGradGradGradGradGradGrad

                          Input orientation:                          
 ---------------------------------------------------------------------
 Center     Atomic      Atomic             Coordinates (Angstroms)
 Number     Number       Type             X           Y           Z
 ---------------------------------------------------------------------
      1          6           0       -1.239477    0.401578    0.218517
      2          6           0       -0.098664   -0.230436   -0.150457
      3          6           0        1.036170    0.551675   -0.822829
      4          6           0        1.018646    1.997856   -0.313038
      5          6           0       -0.148554    2.577249    0.059770
      6          7           0       -1.429899    1.847200   -0.014352
      7          1           0        1.975060    0.098468   -0.582020
      8          1           0       -2.020558   -0.160095    0.686851
      9          1           0        1.931857    2.552099   -0.251720
     10          1           0       -0.141650    3.587088    0.413435
     11          6           0        0.058398   -1.740752    0.106208
     12          8           0       -0.871189   -2.385288    0.657581
     13          7           0        1.294219   -2.429502   -0.292878
     14          1           0        1.086862   -3.380788   -0.521044
     15          1           0        1.687165   -1.973257   -1.091273
     16          6           0       -2.333733    2.375688    1.017484
     17          1           0       -1.897774    2.227564    1.983351
     18          1           0       -2.489894    3.421408    0.853220
     19          1           0       -3.271424    1.862773    0.966946
     20          1           0        0.898833    0.543118   -1.883944
 ---------------------------------------------------------------------
                    Distance matrix (angstroms):
                    1          2          3          4          5
     1  C    0.000000
     2  C    1.355374   0.000000
     3  C    2.507090   1.533503   0.000000
     4  C    2.815985   2.498019   1.533503   0.000000
     5  C    2.439028   2.815987   2.507090   1.355374   0.000000
     6  N    1.476588   2.471292   2.900607   2.471292   1.476588
     7  H    3.326557   2.143538   1.070000   2.143538   3.326558
     8  H    1.070000   2.097548   3.482720   3.859182   3.375008
     9  H    3.860469   3.446124   2.264976   1.070000   2.103750
    10  H    3.375009   3.859185   3.482720   2.097548   1.070000
    11  C    2.507324   1.540000   2.659769   3.882658   4.323207
    12  O    2.845178   2.427572   3.802024   4.870885   5.050382
    13  N    3.833557   2.606971   3.038891   4.435972   5.222405
    14  H    4.501677   3.386373   3.944352   5.383096   6.112430
    15  H    3.990066   2.666785   2.621286   4.101500   5.040027
    16  C    2.394338   3.626500   4.250885   3.626498   2.394338
    17  H    2.623399   3.719099   4.392184   3.719096   2.623398
    18  H    3.329529   4.478986   4.845373   3.961882   2.612287
    19  H    2.612287   3.961883   4.845373   4.478985   3.329529
    20  H    3.002123   2.144379   1.070000   2.144380   3.002121
                    6          7          8          9         10
     6  N    0.000000
     7  H    3.869633   0.000000
     8  H    2.206761   4.200220   0.000000
     9  H    3.443055   2.476141   4.884516   0.000000
    10  H    2.206761   4.200222   4.200765   2.411029   0.000000
    11  C    3.886253   2.744081   2.675384   4.697503   5.340438
    12  O    4.321760   3.975775   2.504674   5.749929   6.021719
    13  N    5.078246   2.633967   4.134952   5.022413   6.225749
    14  H    5.824318   3.591355   4.635508   5.998808   7.136790
    15  H    5.046954   2.152734   4.494050   4.609075   6.043686
    16  C    1.470000   5.129312   2.576352   4.453903   2.576353
    17  H    2.086720   5.110091   2.719725   4.446002   2.719727
    18  H    2.086720   5.747840   3.615953   4.639878   2.394809
    19  H    2.086720   5.747840   2.394810   5.388362   3.615953
    20  H    3.258681   1.746707   3.953016   2.786988   3.953012
                   11         12         13         14         15
    11  C    0.000000
    12  O    1.258400   0.000000
    13  N    1.470000   2.365231   0.000000
    14  H    2.034920   2.492817   1.000000   0.000000
    15  H    2.034920   3.126249   1.000000   1.632993   0.000000
    16  C    4.847452   4.993542   6.161894   6.870557   6.287114
    17  H    4.806018   4.908151   6.087553   6.828884   6.320759
    18  H    5.805146   6.031269   7.061601   7.807154   7.094455
    19  H    4.981363   4.889055   6.391860   6.978803   6.598408
    20  H    3.143740   4.262380   3.394745   4.158111   2.753532
                   16         17         18         19         20
    16  C    0.000000
    17  H    1.070000   0.000000
    18  H    1.070000   1.747303   0.000000
    19  H    1.070000   1.747303   1.747303   0.000000
    20  H    4.714455   5.061061   5.221120   5.221121   0.000000
 Stoichiometry    C7H10N2O
 Framework group  C1[X(C7H10N2O)]
 Deg. of freedom    54
 Full point group                 C1      NOp   1
 Largest Abelian subgroup         C1      NOp   1
 Largest concise Abelian subgroup C1      NOp   1
                         Standard orientation:                         
 ---------------------------------------------------------------------
 Center     Atomic      Atomic             Coordinates (Angstroms)
 Number     Number       Type             X           Y           Z
 ---------------------------------------------------------------------
      1          6           0        0.448817   -0.843299    0.234102
      2          6           0       -0.564282    0.052824    0.146748
      3          6           0       -0.280973    1.554970    0.268911
      4          6           0        1.128104    1.843993   -0.262689
      5          6           0        2.101239    0.905573   -0.165661
      6          7           0        1.843905   -0.411026    0.451315
      7          1           0       -0.999359    2.102649   -0.304561
      8          1           0        0.232490   -1.887502    0.146101
      9          1           0        1.344099    2.790821   -0.711870
     10          1           0        3.078473    1.124600   -0.542411
     11          6           0       -2.006346   -0.439705   -0.075666
     12          8           0       -2.241987   -1.671759   -0.176096
     13          7           0       -3.107597    0.529379   -0.170654
     14          1           0       -3.950087    0.110866    0.168547
     15          1           0       -2.890691    1.335469    0.379955
     16          6           0        2.744164   -1.400817   -0.157576
     17          1           0        2.551643   -1.459136   -1.208497
     18          1           0        3.759962   -1.105448    0.003088
     19          1           0        2.576179   -2.358328    0.289475
     20          1           0       -0.345317    1.850386    1.295307
 ---------------------------------------------------------------------
 Rotational constants (GHZ):      2.4389798      0.9133711      0.6848993
 Standard basis: VSTO-6G (5D, 7F)
 There are    50 symmetry adapted basis functions of A   symmetry.
 Integral buffers will be    131072 words long.
 Regular integral format.
 Two-electron integral symmetry is turned off.
    50 basis functions,   300 primitive gaussians,    50 cartesian basis functions
    27 alpha electrons       27 beta electrons
       nuclear repulsion energy       304.4638767381 Hartrees.
 Do NDO integrals.
 One-electron integrals computed using PRISM.
 NBasis=    50 RedAO= F  NBF=    50
 NBsUse=    50 1.00D-04 NBFU=    50
 Simple Huckel Guess.
 Initial guess orbital symmetries:
       Occupied  (A) (A) (A) (A) (A) (A) (A) (A) (A) (A) (A) (A)
                 (A) (A) (A) (A) (A) (A) (A) (A) (A) (A) (A) (A)
                 (A) (A) (A)
       Virtual   (A) (A) (A) (A) (A) (A) (A) (A) (A) (A) (A) (A)
                 (A) (A) (A) (A) (A) (A) (A) (A) (A) (A) (A)
 The electronic state of the initial guess is 1-A.
 Requested convergence on RMS density matrix=1.00D-08 within 128 cycles.
 Requested convergence on MAX density matrix=1.00D-06.
 Requested convergence on             energy=1.00D-06.
 No special actions if energy rises.
 Overlap will be assumed to be unity.
 Keep J ints in memory in canonical form, NReq=891296.
 SCF Done:  E(RAM1) =  0.293186071385E-01 A.U. after   15 cycles
             Convg  =    0.5242D-08             -V/T =  1.0003

 **********************************************************************

            Population analysis using the SCF density.

 **********************************************************************

 Orbital symmetries:
       Occupied  (A) (A) (A) (A) (A) (A) (A) (A) (A) (A) (A) (A)
                 (A) (A) (A) (A) (A) (A) (A) (A) (A) (A) (A) (A)
                 (A) (A) (A)
       Virtual   (A) (A) (A) (A) (A) (A) (A) (A) (A) (A) (A) (A)
                 (A) (A) (A) (A) (A) (A) (A) (A) (A) (A) (A)
 The electronic state is 1-A.
 Alpha  occ. eigenvalues --   -1.46416  -1.40973  -1.27874  -1.23036  -1.17302
 Alpha  occ. eigenvalues --   -1.03573  -0.93491  -0.88272  -0.78192  -0.67426
 Alpha  occ. eigenvalues --   -0.66097  -0.63941  -0.60235  -0.59737  -0.57986
 Alpha  occ. eigenvalues --   -0.55123  -0.54442  -0.53455  -0.52346  -0.49602
 Alpha  occ. eigenvalues --   -0.47198  -0.46127  -0.43948  -0.42049  -0.39038
 Alpha  occ. eigenvalues --   -0.38405  -0.33326
 Alpha virt. eigenvalues --    0.00222   0.02913   0.06106   0.07489   0.09578
 Alpha virt. eigenvalues --    0.12722   0.13063   0.13722   0.14156   0.15252
 Alpha virt. eigenvalues --    0.15589   0.15888   0.16736   0.16938   0.17032
 Alpha virt. eigenvalues --    0.17295   0.18292   0.18919   0.19098   0.20245
 Alpha virt. eigenvalues --    0.21027   0.21048   0.24507
          Condensed to atoms (all electrons):
              1          2          3          4          5          6
     1  C    4.016279   0.000000   0.000000   0.000000   0.000000   0.000000
     2  C    0.000000   4.213144   0.000000   0.000000   0.000000   0.000000
     3  C    0.000000   0.000000   4.070601   0.000000   0.000000   0.000000
     4  C    0.000000   0.000000   0.000000   4.194344   0.000000   0.000000
     5  C    0.000000   0.000000   0.000000   0.000000   4.108188   0.000000
     6  N    0.000000   0.000000   0.000000   0.000000   0.000000   5.133950
     7  H    0.000000   0.000000   0.000000   0.000000   0.000000   0.000000
     8  H    0.000000   0.000000   0.000000   0.000000   0.000000   0.000000
     9  H    0.000000   0.000000   0.000000   0.000000   0.000000   0.000000
    10  H    0.000000   0.000000   0.000000   0.000000   0.000000   0.000000
    11  C    0.000000   0.000000   0.000000   0.000000   0.000000   0.000000
    12  O    0.000000   0.000000   0.000000   0.000000   0.000000   0.000000
    13  N    0.000000   0.000000   0.000000   0.000000   0.000000   0.000000
    14  H    0.000000   0.000000   0.000000   0.000000   0.000000   0.000000
    15  H    0.000000   0.000000   0.000000   0.000000   0.000000   0.000000
    16  C    0.000000   0.000000   0.000000   0.000000   0.000000   0.000000
    17  H    0.000000   0.000000   0.000000   0.000000   0.000000   0.000000
    18  H    0.000000   0.000000   0.000000   0.000000   0.000000   0.000000
    19  H    0.000000   0.000000   0.000000   0.000000   0.000000   0.000000
    20  H    0.000000   0.000000   0.000000   0.000000   0.000000   0.000000
              7          8          9         10         11         12
     1  C    0.000000   0.000000   0.000000   0.000000   0.000000   0.000000
     2  C    0.000000   0.000000   0.000000   0.000000   0.000000   0.000000
     3  C    0.000000   0.000000   0.000000   0.000000   0.000000   0.000000
     4  C    0.000000   0.000000   0.000000   0.000000   0.000000   0.000000
     5  C    0.000000   0.000000   0.000000   0.000000   0.000000   0.000000
     6  N    0.000000   0.000000   0.000000   0.000000   0.000000   0.000000
     7  H    0.906878   0.000000   0.000000   0.000000   0.000000   0.000000
     8  H    0.000000   0.830644   0.000000   0.000000   0.000000   0.000000
     9  H    0.000000   0.000000   0.859324   0.000000   0.000000   0.000000
    10  H    0.000000   0.000000   0.000000   0.852083   0.000000   0.000000
    11  C    0.000000   0.000000   0.000000   0.000000   3.707356   0.000000
    12  O    0.000000   0.000000   0.000000   0.000000   0.000000   6.343595
    13  N    0.000000   0.000000   0.000000   0.000000   0.000000   0.000000
    14  H    0.000000   0.000000   0.000000   0.000000   0.000000   0.000000
    15  H    0.000000   0.000000   0.000000   0.000000   0.000000   0.000000
    16  C    0.000000   0.000000   0.000000   0.000000   0.000000   0.000000
    17  H    0.000000   0.000000   0.000000   0.000000   0.000000   0.000000
    18  H    0.000000   0.000000   0.000000   0.000000   0.000000   0.000000
    19  H    0.000000   0.000000   0.000000   0.000000   0.000000   0.000000
    20  H    0.000000   0.000000   0.000000   0.000000   0.000000   0.000000
             13         14         15         16         17         18
     1  C    0.000000   0.000000   0.000000   0.000000   0.000000   0.000000
     2  C    0.000000   0.000000   0.000000   0.000000   0.000000   0.000000
     3  C    0.000000   0.000000   0.000000   0.000000   0.000000   0.000000
     4  C    0.000000   0.000000   0.000000   0.000000   0.000000   0.000000
     5  C    0.000000   0.000000   0.000000   0.000000   0.000000   0.000000
     6  N    0.000000   0.000000   0.000000   0.000000   0.000000   0.000000
     7  H    0.000000   0.000000   0.000000   0.000000   0.000000   0.000000
     8  H    0.000000   0.000000   0.000000   0.000000   0.000000   0.000000
     9  H    0.000000   0.000000   0.000000   0.000000   0.000000   0.000000
    10  H    0.000000   0.000000   0.000000   0.000000   0.000000   0.000000
    11  C    0.000000   0.000000   0.000000   0.000000   0.000000   0.000000
    12  O    0.000000   0.000000   0.000000   0.000000   0.000000   0.000000
    13  N    5.323549   0.000000   0.000000   0.000000   0.000000   0.000000
    14  H    0.000000   0.821074   0.000000   0.000000   0.000000   0.000000
    15  H    0.000000   0.000000   0.834029   0.000000   0.000000   0.000000
    16  C    0.000000   0.000000   0.000000   4.131277   0.000000   0.000000
    17  H    0.000000   0.000000   0.000000   0.000000   0.937240   0.000000
    18  H    0.000000   0.000000   0.000000   0.000000   0.000000   0.907160
    19  H    0.000000   0.000000   0.000000   0.000000   0.000000   0.000000
    20  H    0.000000   0.000000   0.000000   0.000000   0.000000   0.000000
             19         20
     1  C    0.000000   0.000000
     2  C    0.000000   0.000000
     3  C    0.000000   0.000000
     4  C    0.000000   0.000000
     5  C    0.000000   0.000000
     6  N    0.000000   0.000000
     7  H    0.000000   0.000000
     8  H    0.000000   0.000000
     9  H    0.000000   0.000000
    10  H    0.000000   0.000000
    11  C    0.000000   0.000000
    12  O    0.000000   0.000000
    13  N    0.000000   0.000000
    14  H    0.000000   0.000000
    15  H    0.000000   0.000000
    16  C    0.000000   0.000000
    17  H    0.000000   0.000000
    18  H    0.000000   0.000000
    19  H    0.905584   0.000000
    20  H    0.000000   0.903702
 Mulliken atomic charges:
              1
     1  C   -0.016279
     2  C   -0.213144
     3  C   -0.070601
     4  C   -0.194344
     5  C   -0.108188
     6  N   -0.133950
     7  H    0.093122
     8  H    0.169356
     9  H    0.140676
    10  H    0.147917
    11  C    0.292644
    12  O   -0.343595
    13  N   -0.323549
    14  H    0.178926
    15  H    0.165971
    16  C   -0.131277
    17  H    0.062760
    18  H    0.092840
    19  H    0.094416
    20  H    0.096298
 Sum of Mulliken atomic charges =   0.00000
 Mulliken charges with hydrogens summed into heavy atoms:
              1
     1  C    0.153077
     2  C   -0.213144
     3  C    0.118820
     4  C   -0.053668
     5  C    0.039729
     6  N   -0.133950
    11  C    0.292644
    12  O   -0.343595
    13  N    0.021348
    16  C    0.118739
 Sum of Mulliken charges with hydrogens summed into heavy atoms =   0.00000
 Charge=              0.0000 electrons
 Dipole moment (field-independent basis, Debye):
    X=              1.7503    Y=              1.9728    Z=              0.4386  Tot=              2.6735
 N-N= 3.044638767381D+02 E-N=-4.626796088111D+02  KE=-1.071972725014D+02
 Calling FoFJK, ICntrl=      2127 FMM=F ISym2X=0 I1Cent= 0 IOpClX= 0 NMat=1 NMatS=1 NMatT=0.
 ***** Axes restored to original set *****
 -------------------------------------------------------------------
 Center     Atomic                   Forces (Hartrees/Bohr)
 Number     Number              X              Y              Z
 -------------------------------------------------------------------
      1        6           0.029120991    0.047553173   -0.021970677
      2        6           0.028681754   -0.022435786   -0.007769726
      3        6          -0.041714300    0.023824268    0.055330983
      4        6          -0.033265139   -0.032477954   -0.009088543
      5        6          -0.013237852   -0.055752737   -0.017630881
      6        7           0.034921261   -0.019480389    0.026741966
      7        1           0.032426341   -0.011913630    0.008338969
      8        1          -0.023339897   -0.006837119    0.009335941
      9        1           0.017914592    0.004905860   -0.002189274
     10        1          -0.009823556    0.021016571    0.006577554
     11        6           0.008178052    0.003804384   -0.010537603
     12        8           0.027211307    0.016754116   -0.013005986
     13        7          -0.055230378    0.032118160    0.005276366
     14        1           0.002380982   -0.002855623    0.005501115
     15        1           0.004070831    0.000770140    0.002261286
     16        6           0.023319547   -0.014564807   -0.028948577
     17        1           0.012594049   -0.003374051    0.039126276
     18        1          -0.005121224    0.036819988   -0.008139297
     19        1          -0.033201697   -0.018565531   -0.003843352
     20        1          -0.005885663    0.000690967   -0.035366540
 -------------------------------------------------------------------
 Cartesian Forces:  Max     0.055752737 RMS     0.023952253

 GradGradGradGradGradGradGradGradGradGradGradGradGradGradGradGradGradGrad
 Berny optimization.
 Internal  Forces:  Max     0.058619166 RMS     0.015867284
 Search for a local minimum.
 Step number   1 out of a maximum of  105
 All quantities printed in internal units (Hartrees-Bohrs-Radians)
 Mixed Optimization -- RFO/linear search
 Second derivative matrix not updated -- first step.
     Eigenvalues ---    0.00237   0.00501   0.00631   0.00766   0.00766
     Eigenvalues ---    0.00913   0.01110   0.01425   0.01539   0.01822
     Eigenvalues ---    0.01876   0.03750   0.04992   0.05453   0.06774
     Eigenvalues ---    0.07537   0.07537   0.09222   0.10513   0.15854
     Eigenvalues ---    0.16000   0.16000   0.16000   0.16000   0.16000
     Eigenvalues ---    0.16000   0.16000   0.16000   0.18899   0.21255
     Eigenvalues ---    0.22650   0.25000   0.25000   0.25000   0.28091
     Eigenvalues ---    0.28519   0.28521   0.33769   0.33832   0.35740
     Eigenvalues ---    0.35740   0.37230   0.37230   0.37230   0.37230
     Eigenvalues ---    0.37230   0.37230   0.37230   0.37230   0.47688
     Eigenvalues ---    0.47688   0.49782   0.53892   0.802091000.00000
     Eigenvalues --- 1000.000001000.000001000.000001000.000001000.00000
     Eigenvalues --- 1000.000001000.000001000.000001000.000001000.00000
     Eigenvalues --- 1000.000001000.000001000.000001000.000001000.00000
     Eigenvalues --- 1000.000001000.000001000.000001000.000001000.00000
     Eigenvalues --- 1000.000001000.000001000.000001000.000001000.00000
     Eigenvalues --- 1000.000001000.000001000.000001000.000001000.00000
     Eigenvalues --- 1000.000001000.000001000.000001000.000001000.00000
     Eigenvalues --- 1000.000001000.000001000.000001000.000001000.00000
 RFO step:  Lambda=-6.15610077D-02 EMin= 2.36824112D-03
 Linear search not attempted -- first point.
 Maximum step size (   0.300) exceeded in Quadratic search.
    -- Step size scaled by   0.700
 Iteration  1 RMS(Cart)=  0.04878013 RMS(Int)=  0.00068727
 Iteration  2 RMS(Cart)=  0.00098703 RMS(Int)=  0.00019232
 Iteration  3 RMS(Cart)=  0.00000067 RMS(Int)=  0.00019232
 Variable       Old X    -DE/DX   Delta X   Delta X   Delta X     New X
                                 (Linear)    (Quad)   (Total)
    R1        2.56129  -0.00755   0.00000  -0.00865  -0.00865   2.55264
    R2        2.79035  -0.04833   0.00000  -0.08443  -0.08430   2.70605
    R3        2.02201   0.02471   0.00000   0.03988   0.03988   2.06189
    R4        2.89790  -0.03419   0.00000  -0.06508  -0.06521   2.83269
    R5        2.91018  -0.05273   0.00000  -0.10647  -0.10647   2.80371
    R6        2.89790  -0.03640   0.00000  -0.06988  -0.07001   2.82789
    R7        2.02201   0.03538   0.00000   0.05709   0.05709   2.07909
    R8        2.02201   0.03582   0.00000   0.05781   0.05781   2.07981
    R9        2.56128  -0.01099   0.00000  -0.01305  -0.01304   2.54824
   R10        2.02201   0.01771   0.00000   0.02857   0.02857   2.05058
   R11        2.79035  -0.04222   0.00000  -0.07427  -0.07414   2.71621
   R12        2.02201   0.02195   0.00000   0.03541   0.03541   2.05742
   R13        2.77790   0.00033   0.00000   0.00055   0.00055   2.77845
   R14        2.37803  -0.03438   0.00000  -0.02787  -0.02787   2.35016
   R15        2.77790  -0.05862   0.00000  -0.09796  -0.09796   2.67994
   R16        1.88973   0.00097   0.00000   0.00126   0.00126   1.89098
   R17        1.88973   0.00015   0.00000   0.00019   0.00019   1.88992
   R18        2.02201   0.04092   0.00000   0.06603   0.06603   2.08803
   R19        2.02201   0.03798   0.00000   0.06129   0.06129   2.08330
   R20        2.02201   0.03818   0.00000   0.06161   0.06161   2.08361
    A1        2.12015   0.00384   0.00000   0.00737   0.00758   2.12773
    A2        2.08151   0.00610   0.00000   0.02164   0.02146   2.10297
    A3        2.08152  -0.00994   0.00000  -0.02905  -0.02922   2.05230
    A4        2.09950   0.00225   0.00000   0.00909   0.00909   2.10860
    A5        2.09184  -0.00531   0.00000  -0.01394  -0.01395   2.07789
    A6        2.09184   0.00306   0.00000   0.00485   0.00485   2.09669
    A7        1.90367  -0.00672   0.00000  -0.01035  -0.01060   1.89307
    A8        1.91203   0.00579   0.00000   0.02045   0.02051   1.93254
    A9        1.91320  -0.00005   0.00000  -0.00663  -0.00671   1.90649
   A10        1.91203   0.00110   0.00000   0.00074   0.00083   1.91287
   A11        1.91320  -0.00017   0.00000  -0.00879  -0.00886   1.90434
   A12        1.90967   0.00004   0.00000   0.00456   0.00454   1.91421
   A13        2.09950   0.00080   0.00000   0.00549   0.00550   2.10500
   A14        2.09184  -0.00637   0.00000  -0.02160  -0.02161   2.07023
   A15        2.09184   0.00557   0.00000   0.01611   0.01611   2.10795
   A16        2.12015   0.00595   0.00000   0.01181   0.01205   2.13220
   A17        2.08151   0.00691   0.00000   0.02531   0.02514   2.10665
   A18        2.08152  -0.01286   0.00000  -0.03715  -0.03730   2.04421
   A19        1.94359  -0.00371   0.00000  -0.00675  -0.00728   1.93632
   A20        1.89713   0.00473   0.00000   0.02599   0.02561   1.92273
   A21        1.89713   0.00606   0.00000   0.02908   0.02872   1.92585
   A22        2.09440   0.00489   0.00000   0.01100   0.01088   2.10527
   A23        2.09440  -0.00604   0.00000  -0.01356  -0.01368   2.08072
   A24        2.09440   0.00114   0.00000   0.00256   0.00245   2.09684
   A25        1.91063   0.00388   0.00000   0.01841   0.01801   1.92864
   A26        1.91063   0.00564   0.00000   0.02395   0.02355   1.93419
   A27        1.91063   0.00166   0.00000   0.01751   0.01678   1.92741
   A28        1.91063   0.00932   0.00000   0.03182   0.03186   1.94249
   A29        1.91063  -0.00432   0.00000  -0.01491  -0.01499   1.89565
   A30        1.91063  -0.00372   0.00000  -0.01285  -0.01294   1.89769
   A31        1.91063  -0.00108   0.00000  -0.00117  -0.00112   1.90951
   A32        1.91063  -0.00117   0.00000  -0.00117  -0.00115   1.90949
   A33        1.91063   0.00097   0.00000  -0.00171  -0.00193   1.90871
    D1        0.00315   0.00016   0.00000   0.00595   0.00610   0.00925
    D2       -3.13806   0.00054   0.00000   0.00994   0.01006  -3.12800
    D3       -3.14111  -0.00169   0.00000  -0.01250  -0.01262   3.12945
    D4        0.00086  -0.00132   0.00000  -0.00852  -0.00866  -0.00780
    D5       -0.55188   0.00277   0.00000   0.01246   0.01243  -0.53944
    D6       -2.64136  -0.00550   0.00000  -0.03607  -0.03584  -2.67721
    D7        2.59239   0.00460   0.00000   0.03084   0.03057   2.62295
    D8        0.50290  -0.00367   0.00000  -0.01770  -0.01771   0.48519
    D9        0.52858  -0.00309   0.00000  -0.02110  -0.02104   0.50753
   D10        2.62128  -0.00234   0.00000  -0.01416  -0.01419   2.60709
   D11       -1.56626   0.00125   0.00000  -0.00002  -0.00002  -1.56627
   D12       -2.61340  -0.00347   0.00000  -0.02508  -0.02505  -2.63845
   D13       -0.52069  -0.00272   0.00000  -0.01814  -0.01820  -0.53889
   D14        1.57495   0.00087   0.00000  -0.00400  -0.00403   1.57093
   D15       -0.00019  -0.00237   0.00000  -0.02531  -0.02533  -0.02552
   D16        3.14140   0.00034   0.00000   0.00319   0.00324  -3.13854
   D17       -3.14140  -0.00200   0.00000  -0.02135  -0.02140   3.12039
   D18        0.00019   0.00071   0.00000   0.00715   0.00717   0.00736
   D19       -0.52858   0.00343   0.00000   0.02011   0.02007  -0.50852
   D20        2.61341   0.00387   0.00000   0.02313   0.02306   2.63647
   D21       -2.62129  -0.00021   0.00000   0.00100   0.00102  -2.62027
   D22        0.52071   0.00023   0.00000   0.00401   0.00401   0.52472
   D23        1.56625  -0.00084   0.00000   0.00036   0.00040   1.56665
   D24       -1.57494  -0.00039   0.00000   0.00338   0.00339  -1.57155
   D25       -0.00314   0.00045   0.00000  -0.00134  -0.00146  -0.00460
   D26        3.14112   0.00203   0.00000   0.01287   0.01302  -3.12904
   D27        3.13805   0.00000   0.00000  -0.00436  -0.00453   3.13353
   D28       -0.00087   0.00158   0.00000   0.00985   0.00996   0.00908
   D29        0.55187  -0.00221   0.00000  -0.01324  -0.01320   0.53867
   D30        2.64136   0.00527   0.00000   0.03346   0.03327   2.67463
   D31       -2.59239  -0.00376   0.00000  -0.02735  -0.02710  -2.61949
   D32       -0.50290   0.00372   0.00000   0.01935   0.01937  -0.48354
   D33        1.05910   0.00111   0.00000   0.01322   0.01361   1.07271
   D34       -3.12969   0.00285   0.00000   0.02214   0.02240  -3.10729
   D35       -1.03529  -0.00088   0.00000   0.00304   0.00352  -1.03178
   D36       -1.05910  -0.00088   0.00000  -0.01175  -0.01211  -1.07121
   D37        1.03529   0.00086   0.00000  -0.00283  -0.00332   1.03198
   D38        3.12969  -0.00287   0.00000  -0.02193  -0.02220   3.10749
   D39       -2.61799  -0.00635   0.00000  -0.04873  -0.04899  -2.66698
   D40       -0.52360   0.00151   0.00000  -0.00134  -0.00102  -0.52461
   D41        0.52360  -0.00364   0.00000  -0.02023  -0.02056   0.50304
   D42        2.61799   0.00422   0.00000   0.02716   0.02741   2.64541
         Item               Value     Threshold  Converged?
 Maximum Force            0.058619     0.000450     NO 
 RMS     Force            0.015867     0.000300     NO 
 Maximum Displacement     0.152484     0.001800     NO 
 RMS     Displacement     0.049228     0.001200     NO 
 Predicted change in Energy=-3.078870D-02
 GradGradGradGradGradGradGradGradGradGradGradGradGradGradGradGradGradGrad

                          Input orientation:                          
 ---------------------------------------------------------------------
 Center     Atomic      Atomic             Coordinates (Angstroms)
 Number     Number       Type             X           Y           Z
 ---------------------------------------------------------------------
      1          6           0       -1.202869    0.407236    0.231524
      2          6           0       -0.070995   -0.224127   -0.149125
      3          6           0        1.044406    0.529962   -0.808076
      4          6           0        1.016246    1.943159   -0.316687
      5          6           0       -0.144038    2.514188    0.065473
      6          7           0       -1.396022    1.809799    0.016882
      7          1           0        2.017002    0.075091   -0.568058
      8          1           0       -2.016071   -0.148882    0.700504
      9          1           0        1.947691    2.498471   -0.277678
     10          1           0       -0.168099    3.545954    0.412222
     11          6           0        0.054985   -1.683180    0.088641
     12          8           0       -0.855275   -2.313703    0.654800
     13          7           0        1.243341   -2.348811   -0.306242
     14          1           0        1.056154   -3.311346   -0.505794
     15          1           0        1.654408   -1.901125   -1.100472
     16          6           0       -2.326827    2.352202    1.017459
     17          1           0       -1.929090    2.233557    2.041481
     18          1           0       -2.484423    3.422915    0.807466
     19          1           0       -3.287683    1.817945    0.933473
     20          1           0        0.891557    0.524342   -1.897986
 ---------------------------------------------------------------------
                    Distance matrix (angstroms):
                    1          2          3          4          5
     1  C    0.000000
     2  C    1.350797   0.000000
     3  C    2.479128   1.498995   0.000000
     4  C    2.753919   2.430494   1.496457   0.000000
     5  C    2.363883   2.747682   2.472376   1.348473   0.000000
     6  N    1.431978   2.433127   2.876496   2.438871   1.437355
     7  H    3.334250   2.150527   1.100208   2.134099   3.319736
     8  H    1.091103   2.123877   3.478960   3.821814   3.316582
     9  H    3.815571   3.391779   2.229860   1.085119   2.119747
    10  H    3.309826   3.812880   3.472104   2.122011   1.088740
    11  C    2.443861   1.483658   2.584774   3.773414   4.202148
    12  O    2.775517   2.372282   3.719573   4.750501   4.915455
    13  N    3.724102   2.503288   2.928950   4.297987   5.070676
    14  H    4.413012   3.305843   3.853201   5.258058   5.975253
    15  H    3.907273   2.587354   2.523446   3.974933   4.908037
    16  C    2.379888   3.617619   4.244803   3.622623   2.386857
    17  H    2.671851   3.780407   4.456892   3.784216   2.677643
    18  H    3.326922   4.476675   4.840640   3.963342   2.617965
    19  H    2.613289   3.960954   4.843438   4.483568   3.334769
    20  H    2.989172   2.131954   1.100590   2.128168   2.981127
                    6          7          8          9         10
     6  N    0.000000
     7  H    3.872996   0.000000
     8  H    2.165231   4.233804   0.000000
     9  H    3.426581   2.441699   4.865874   0.000000
    10  H    2.162943   4.216931   4.141246   2.459624   0.000000
    11  C    3.783051   2.715195   2.649098   4.604643   5.243884
    12  O    4.207447   3.930865   2.456824   5.646517   5.904797
    13  N    4.936059   2.557812   4.059186   4.898273   6.103819
    14  H    5.701971   3.520662   4.571094   5.882249   7.025960
    15  H    4.931993   2.078550   4.448178   4.485471   5.939734
    16  C    1.470290   5.154411   2.540167   4.468812   2.539973
    17  H    2.136055   5.200029   2.735288   4.525274   2.734585
    18  H    2.100425   5.776056   3.603960   4.655725   2.353022
    19  H    2.102043   5.782026   2.353652   5.416562   3.604098
    20  H    3.248406   1.799211   3.957232   2.763694   3.948427
                   11         12         13         14         15
    11  C    0.000000
    12  O    1.243651   0.000000
    13  N    1.418163   2.308468   0.000000
    14  H    2.001653   2.448639   1.000666   0.000000
    15  H    2.004905   3.090261   1.000100   1.643250   0.000000
    16  C    4.777033   4.905880   6.049612   6.770571   6.198924
    17  H    4.805306   4.873760   6.047662   6.793102   6.309431
    18  H    5.747827   5.965418   6.960560   7.720791   7.008249
    19  H    4.913761   4.802581   6.279246   6.873866   6.510966
    20  H    3.085400   4.197933   3.303394   4.083845   2.664744
                   16         17         18         19         20
    16  C    0.000000
    17  H    1.104940   0.000000
    18  H    1.102433   1.801599   0.000000
    19  H    1.102601   1.801718   1.799175   0.000000
    20  H    4.711570   5.137788   5.207537   5.211202   0.000000
 Stoichiometry    C7H10N2O
 Framework group  C1[X(C7H10N2O)]
 Deg. of freedom    54
 Full point group                 C1      NOp   1
 Largest Abelian subgroup         C1      NOp   1
 Largest concise Abelian subgroup C1      NOp   1
                         Standard orientation:                         
 ---------------------------------------------------------------------
 Center     Atomic      Atomic             Coordinates (Angstroms)
 Number     Number       Type             X           Y           Z
 ---------------------------------------------------------------------
      1          6           0        0.452853   -0.812460    0.216898
      2          6           0       -0.571341    0.064524    0.135776
      3          6           0       -0.330025    1.539585    0.249561
      4          6           0        1.047597    1.834769   -0.254830
      5          6           0        2.025734    0.911316   -0.160707
      6          7           0        1.802887   -0.382478    0.424465
      7          1           0       -1.067954    2.101632   -0.342066
      8          1           0        0.269798   -1.885671    0.144687
      9          1           0        1.242792    2.807531   -0.694280
     10          1           0        3.031468    1.128600   -0.516575
     11          6           0       -1.947986   -0.451787   -0.062998
     12          8           0       -2.155962   -1.672227   -0.181066
     13          7           0       -3.025350    0.466082   -0.152384
     14          1           0       -3.877036    0.037510    0.151406
     15          1           0       -2.837287    1.288382    0.384882
     16          6           0        2.740158   -1.365997   -0.137644
     17          1           0        2.599969   -1.476302   -1.228090
     18          1           0        3.769392   -1.028151    0.067044
     19          1           0        2.570043   -2.338255    0.353785
     20          1           0       -0.398189    1.837619    1.306834
 ---------------------------------------------------------------------
 Rotational constants (GHZ):      2.4951619      0.9569507      0.7124043
 Standard basis: VSTO-6G (5D, 7F)
 There are    50 symmetry adapted basis functions of A   symmetry.
 Integral buffers will be    131072 words long.
 Regular integral format.
 Two-electron integral symmetry is turned off.
    50 basis functions,   300 primitive gaussians,    50 cartesian basis functions
    27 alpha electrons       27 beta electrons
       nuclear repulsion energy       307.5175738439 Hartrees.
 Do NDO integrals.
 One-electron integrals computed using PRISM.
 NBasis=    50 RedAO= F  NBF=    50
 NBsUse=    50 1.00D-04 NBFU=    50
 Initial guess read from the read-write file.
 B after Tr=     0.000000    0.000000    0.000000
         Rot=    1.000000    0.000000    0.000000    0.000000 Ang=   0.00 deg.
 Initial guess orbital symmetries:
       Occupied  (A) (A) (A) (A) (A) (A) (A) (A) (A) (A) (A) (A)
                 (A) (A) (A) (A) (A) (A) (A) (A) (A) (A) (A) (A)
                 (A) (A) (A)
       Virtual   (A) (A) (A) (A) (A) (A) (A) (A) (A) (A) (A) (A)
                 (A) (A) (A) (A) (A) (A) (A) (A) (A) (A) (A)
 Requested convergence on RMS density matrix=1.00D-08 within 128 cycles.
 Requested convergence on MAX density matrix=1.00D-06.
 Requested convergence on             energy=1.00D-06.
 No special actions if energy rises.
 Overlap will be assumed to be unity.
 Keep J ints in memory in canonical form, NReq=891296.
Error: software termination
   rax 0000000000000000, rbx 0000000000000004, rcx ffffffffffffffff
   rdx 00000000016f2aa0, rsp 00007fff0381e4d8, rbp 00007fff0381e510
   rsi 0000000000000004, rdi 0000000000000000, r8  0000000000000001
   r9  00007fff0381eb90, r10 0000000000000033, r11 0000000000000246
   r12 000000000149c8f8, r13 0000000000000000, r14 00007fff0381eb90
   r15 00007fff0381eb90
  --- traceback not available
 
        *=*=*=*=*=*=*=*=*=*=*=*=*
        * xrg09y: Leaving g09   *
        *=*=*=*=*=*=*=*=*=*=*=*=*
 
 
 Scratch directory report:  /var/spool/scratch/pshety/g09/NADH_1
 ========================= 
 total 3596
 -rw-r--r-- 1 pshety qnt       0 Jan  5 02:03 Gau-11995.d2e
 -rw-r--r-- 1 pshety qnt       0 Jan  5 02:03 Gau-11995.int
 -rw-r--r-- 1 pshety qnt 4771840 Jan  5 02:08 Gau-11995.rwf
 -rw-r--r-- 1 pshety qnt  524288 Jan  5 02:08 Gau-11995.scr
 -rw-r--r-- 1 pshety qnt    3504 Jan  5 02:03 NADH_1.inp
 -rw-r--r-- 1 pshety qnt      57 Jan  5 02:03 home
 
 Sun Jan  5 02:08:41 IST 2014
 quanta12
 40.912u 0.584s 5:15.08 13.1%	0+0k 0+0io 1pf+0w
