 cputime      unlimited
 filesize     unlimited
 datasize     unlimited
 stacksize    unlimited
 coredumpsize 0 kbytes
 memoryuse    unlimited
 vmemoryuse   unlimited
 descriptors  1024 
 memorylocked 32 kbytes
 maxproc      204800 
 Thu Mar 22 15:23:14 IST 2012
 quanta04
 
        *=*=*=*=*=*=*=*=*=*=*=*=*=*=*=*=*
        * xrung09: Running g09          *
        * (Command = time /bin/nice g09 *
        *=*=*=*=*=*=*=*=*=*=*=*=*=*=*=*=*
        g09root=/private/chem/g09B01
        g09 = /private/chem/g09B01/g09/g09
 
 Entering Gaussian System, Link 0=g09
 Initial command:
 /private/chem/g09B01/g09/l1.exe /var/spool/scratch/freudy/g09/atoms/Gau-1541.inp -scrdir=/var/spool/scratch/freudy/g09/atoms/
 Entering Link 1 = /private/chem/g09B01/g09/l1.exe PID=      1542.
  
 Copyright (c) 1988,1990,1992,1993,1995,1998,2003,2009,2010,
            Gaussian, Inc.  All Rights Reserved.
  
 This is part of the Gaussian(R) 09 program.  It is based on
 the Gaussian(R) 03 system (copyright 2003, Gaussian, Inc.),
 the Gaussian(R) 98 system (copyright 1998, Gaussian, Inc.),
 the Gaussian(R) 94 system (copyright 1995, Gaussian, Inc.),
 the Gaussian 92(TM) system (copyright 1992, Gaussian, Inc.),
 the Gaussian 90(TM) system (copyright 1990, Gaussian, Inc.),
 the Gaussian 88(TM) system (copyright 1988, Gaussian, Inc.),
 the Gaussian 86(TM) system (copyright 1986, Carnegie Mellon
 University), and the Gaussian 82(TM) system (copyright 1983,
 Carnegie Mellon University). Gaussian is a federally registered
 trademark of Gaussian, Inc.
  
 This software contains proprietary and confidential information,
 including trade secrets, belonging to Gaussian, Inc.
  
 This software is provided under written license and may be
 used, copied, transmitted, or stored only in accord with that
 written license.
  
 The following legend is applicable only to US Government
 contracts under FAR:
  
                    RESTRICTED RIGHTS LEGEND
  
 Use, reproduction and disclosure by the US Government is
 subject to restrictions as set forth in subparagraphs (a)
 and (c) of the Commercial Computer Software - Restricted
 Rights clause in FAR 52.227-19.
  
 Gaussian, Inc.
 340 Quinnipiac St., Bldg. 40, Wallingford CT 06492
  
  
 ---------------------------------------------------------------
 Warning -- This program may not be used in any manner that
 competes with the business of Gaussian, Inc. or will provide
 assistance to any competitor of Gaussian, Inc.  The licensee
 of this program is prohibited from giving any competitor of
 Gaussian, Inc. access to this program.  By using this program,
 the user acknowledges that Gaussian, Inc. is engaged in the
 business of creating and licensing software in the field of
 computational chemistry and represents and warrants to the
 licensee that it is not a competitor of Gaussian, Inc. and that
 it will not use this program in any manner prohibited above.
 ---------------------------------------------------------------
  

 Cite this work as:
 Gaussian 09, Revision B.01,
 M. J. Frisch, G. W. Trucks, H. B. Schlegel, G. E. Scuseria, 
 M. A. Robb, J. R. Cheeseman, G. Scalmani, V. Barone, B. Mennucci, 
 G. A. Petersson, H. Nakatsuji, M. Caricato, X. Li, H. P. Hratchian, 
 A. F. Izmaylov, J. Bloino, G. Zheng, J. L. Sonnenberg, M. Hada, 
 M. Ehara, K. Toyota, R. Fukuda, J. Hasegawa, M. Ishida, T. Nakajima, 
 Y. Honda, O. Kitao, H. Nakai, T. Vreven, J. A. Montgomery, Jr., 
 J. E. Peralta, F. Ogliaro, M. Bearpark, J. J. Heyd, E. Brothers, 
 K. N. Kudin, V. N. Staroverov, T. Keith, R. Kobayashi, J. Normand, 
 K. Raghavachari, A. Rendell, J. C. Burant, S. S. Iyengar, J. Tomasi, 
 M. Cossi, N. Rega, J. M. Millam, M. Klene, J. E. Knox, J. B. Cross, 
 V. Bakken, C. Adamo, J. Jaramillo, R. Gomperts, R. E. Stratmann, 
 O. Yazyev, A. J. Austin, R. Cammi, C. Pomelli, J. W. Ochterski, 
 R. L. Martin, K. Morokuma, V. G. Zakrzewski, G. A. Voth, 
 P. Salvador, J. J. Dannenberg, S. Dapprich, A. D. Daniels, 
 O. Farkas, J. B. Foresman, J. V. Ortiz, J. Cioslowski, 
 and D. J. Fox, Gaussian, Inc., Wallingford CT, 2010.
 
 ******************************************
 Gaussian 09:  EM64L-G09RevB.01 12-Aug-2010
                22-Mar-2012 
 ******************************************
 %chk=/home/qnt/freudy/g09/atoms.chk
 %Mem=400MB
 %nproc=4
 Will use up to    4 processors via shared memory.
 --------------
 #P AM1=(Print)
 --------------
 1/38=1/1;
 2/12=2,17=6,18=5,40=1/2;
 3/5=2,16=1,25=1,41=700000,136=1/1,2,3;
 4/35=1/1;
 5/5=2,35=1,38=5/2;
 6/7=2,8=2,9=2,10=2,28=1/1;
 99/5=1,9=1/99;
 Leave Link    1 at Thu Mar 22 15:23:14 2012, MaxMem=   52428800 cpu:       0.2
 (Enter /private/chem/g09B01/g09/l101.exe)
 -------------------------------------------------
 atoms H till Xe and Au,Pt,Hg,U, to get parameters
 -------------------------------------------------
 Symbolic Z-matrix:
 Charge =  0 Multiplicity = 1
 H                    -2.05078   3.48975  -1.73813 
 He                   -0.96683   3.26779  -1.45338 
 Li                    0.15219   3.05289  -1.16498 
 Be                    1.56653   2.938    -0.86171 
 B                     2.99209   2.56814  -0.45677 
 C                     4.41205   2.32577  -0.10266 
 N                     5.67544   2.17531   0.18694 
 O                     7.0007    1.93432   0.5232 
 F                     8.21764   1.70156   0.77231 
 Ne                    9.49488   1.51997   1.05787 
 Na                    10.69873   1.39226   1.31026 
 Mg                    11.94016   1.10243   1.48129 
 Al                    13.16461   0.91967   1.75546 
 Si                    14.33785   0.7181    2.00528 
 P                     15.63104   0.46064   2.29495 
 S                     16.70768   0.34505   2.49607 
 Cl                    17.90426   0.17357   2.73704 
 Ar                    19.27555   0.13714   2.94829 
 K                     20.70059  -0.0706    3.2367 
 Ca                    21.97856  -0.22736   3.48336 
 Sc                    23.46978  -0.31968   3.73446 
 Ti                    24.83295  -0.48689   3.99756 
 V                     26.18852  -0.60374   4.23917 
 Cr                    27.57433  -0.66735   4.31057 
 Mn                    28.96899  -0.67844   4.49523 
 Co                    27.64646  -2.43788   5.04138 
 Ni                    26.674   -3.20307   5.22759 
 Cu                    25.54989  -4.07242   5.43666 
 Cu                    28.45966  -1.7265    4.85654 
 Zn                    24.26765  -4.215     6.48468 
 Ga                    23.17589  -4.87055   6.41099 
 Ge                    22.03795  -5.68354   6.39751 
 As                    20.83228  -6.53168   6.37677 
 Se                    19.50213  -7.32578   6.28475 
 Br                    18.33991  -8.04756   6.21798 
 Kr                    17.05046  -8.74638   6.09413 
 Rb                    16.01124  -9.48005   6.14147 
 Sr                    14.89993  -10.23686   6.24581 
 Y                     13.81105  -11.08112   6.295 
 Zr                    12.47864  -11.91016   6.25239 
 Nb                    11.30012  -12.73049   6.25856 
 Mo                    10.11077  -13.6674   6.31971 
 Tc                    8.81394  -14.6655   6.22992 
 Ru                    7.40022  -15.44947   6.1147 
 Rh                    5.97024  -16.40829   6.08195 
 Pd                    4.76295  -17.26624   6.07878 
 Ag                    3.34871  -18.22974   6.05409 
 Cd                    1.98487  -19.0994   6.00021 
 Sn                    0.67119  -19.92234   5.94087 
 Sb                   -0.69265  -20.79199   5.88698 
 Te                   -2.04427  -21.53018   5.7711 
 I                    -3.43383  -22.18362   5.59866 
 Xe                   -4.92779  -22.9743   5.45781 
 Pt                   -4.93288  -21.05778   4.48758 
 Au                   -4.8132   -18.78493   3.38242 
 Hg                   -4.65557  -16.59682   2.33381 
 U                    -4.68231  -14.42027   1.22435 
 
 NAtoms=     57 NQM=     57 NQMF=      0 NMic=      0 NMicF=      0 NTot=     57.
                    Isotopes and Nuclear Properties:
 (Nuclear quadrupole moments (NQMom) in fm**2, nuclear magnetic moments (NMagM)
  in nuclear magnetons)

  Atom         1           2           3           4           5           6           7           8           9          10
 IAtWgt=           1           4           7           9          11          12          14          16          19          20
 AtmWgt=   1.0078250   4.0026033   7.0160045   9.0121825  11.0093053  12.0000000  14.0030740  15.9949146  18.9984033  19.9924391
 NucSpn=           1           0           3           3           3           0           2           0           1           0
 AtZEff=   0.0000000   0.0000000   0.0000000   0.0000000   0.0000000   0.0000000   0.0000000   0.0000000   0.0000000   0.0000000
 NQMom=    0.0000000   0.0000000  -4.0100000   5.2880000   4.0590000   0.0000000   2.0440000   0.0000000   0.0000000   0.0000000
 NMagM=    2.7928460   0.0000000   3.2564240  -1.1779000   2.6886370   0.0000000   0.4037610   0.0000000   2.6288670   0.0000000

  Atom        11          12          13          14          15          16          17          18          19          20
 IAtWgt=          23          24          27          28          31          32          35          40          39          40
 AtmWgt=  22.9897697  23.9850450  26.9815413  27.9769284  30.9737634  31.9720718  34.9688527  39.9623831  38.9637079  39.9625907
 NucSpn=           3           0           5           0           1           0           3           0           3           0
 AtZEff=   0.0000000   0.0000000   0.0000000   0.0000000   0.0000000   0.0000000   0.0000000   0.0000000   0.0000000   0.0000000
 NQMom=   10.4000000   0.0000000  14.6600000   0.0000000   0.0000000   0.0000000  -8.1650000   0.0000000   5.8500000   0.0000000
 NMagM=    2.2175200   0.0000000   3.6415040   0.0000000   1.1316000   0.0000000   0.8218740   0.0000000   0.3914660   0.0000000

  Atom        21          22          23          24          25          26          27          28          29          30
 IAtWgt=          45          48          51          52          55          59          58          63          63          64
 AtmWgt=  44.9559136  47.9479467  50.9439625  51.9405097  54.9380463  58.9331978  57.9353471  62.9295992  62.9295992  63.9291454
 NucSpn=           7           0           7           0           5           7           0           3           3           0
 AtZEff=   0.0000000   0.0000000   0.0000000   0.0000000   0.0000000   0.0000000   0.0000000   0.0000000   0.0000000   0.0000000
 NQMom=  -22.0000000   0.0000000  -5.2000000   0.0000000  33.0000000  42.0000000   0.0000000 -22.0000000 -22.0000000   0.0000000
 NMagM=    4.7564830   0.0000000   5.1514000   0.0000000   3.4532000   4.6270000   0.0000000   2.2233000   2.2233000   0.0000000

  Atom        31          32          33          34          35          36          37          38          39          40
 IAtWgt=          69          74          75          80          79          84          85          88          89          90
 AtmWgt=  68.9255809  73.9211788  74.9215955  79.9165205  78.9183361  83.9115064  84.9117000  87.9056000  88.9054000  89.9043000
 NucSpn=           3           0           3           0           3           0           5           0           1           0
 AtZEff=   0.0000000   0.0000000   0.0000000   0.0000000   0.0000000   0.0000000   0.0000000   0.0000000   0.0000000   0.0000000
 NQMom=   17.1000000   0.0000000  31.4000000   0.0000000  31.3000000   0.0000000  27.6000000   0.0000000   0.0000000   0.0000000
 NMagM=    2.0165900   0.0000000   1.4394700   0.0000000   2.1063990   0.0000000   1.3530300   0.0000000  -0.1374200   0.0000000

  Atom        41          42          43          44          45          46          47          48          49          50
 IAtWgt=          93          98          99         102         103         106         107         114         118         121
 AtmWgt=  92.9060000  97.9055000  98.9063000 101.9037000 102.9048000 105.9032000 106.9050900 113.9036000 117.9018000 120.9038000
 NucSpn=           9           0           0           0           1           0           1           0           0           5
 AtZEff=   0.0000000   0.0000000   0.0000000   0.0000000   0.0000000   0.0000000   0.0000000   0.0000000   0.0000000   0.0000000
 NQMom=  -32.0000000   0.0000000   0.0000000   0.0000000   0.0000000   0.0000000   0.0000000   0.0000000   0.0000000 -36.0000000
 NMagM=    6.1705000   0.0000000   0.0000000   0.0000000  -0.0884000   0.0000000  -0.1135700   0.0000000   0.0000000   3.3634000

  Atom        51          52          53          54          55          56          57
 IAtWgt=         130         127         132         195         197         202         238
 AtmWgt= 129.9067000 126.9004000 131.9042000 194.9648000 196.9666000 201.9706000 238.0508000
 NucSpn=           0           5           0           1           3           0           0
 AtZEff=   0.0000000   0.0000000   0.0000000   0.0000000   0.0000000   0.0000000   0.0000000
 NQMom=    0.0000000 -71.0000000   0.0000000   0.0000000  54.7000000   0.0000000   0.0000000
 NMagM=    0.0000000   2.8132800   0.0000000   0.6095000   0.1481590   0.0000000   0.0000000
 Leave Link  101 at Thu Mar 22 15:23:14 2012, MaxMem=   52428800 cpu:       0.3
 (Enter /private/chem/g09B01/g09/l202.exe)
 Stoichiometry    CHAgAlArAsAuBBeBrCaCdClCoCrCu2FGaGeHeHgIKKrLiMgMnMoNNaNbNeNiOPPdPtRbRhRuSSbScSeSiSnSrTcTeTiUVXeYZnZr
 Framework group  C1[X(CHAgAlArAsAuBBeBrCaCdClCoCrCu2FGaGeHeHgIKKrLiMgMnMoNNaNbNeNiOPPdPtRbRhRuSSbScSeSiSnSrTcTeTiUVXe
 Framework group  YZnZr)]
 Deg. of freedom   165
 Full point group                 C1      NOp   1
 Largest Abelian subgroup         C1      NOp   1
 Largest concise Abelian subgroup C1      NOp   1
                         Standard orientation:                         
 ---------------------------------------------------------------------
 Center     Atomic      Atomic             Coordinates (Angstroms)
 Number     Number       Type             X           Y           Z
 ---------------------------------------------------------------------
      1          1           0        1.181088   19.754781   -1.819495
      2          2           0        0.393174   18.930455   -1.748939
      3          3           0       -0.427968   18.092636   -1.675892
      4          4           0       -1.551095   17.178759   -1.581257
      5          5           0       -2.544915   16.022506   -1.489614
      6          6           0       -3.603389   14.987441   -1.396475
      7          7           0       -4.580622   14.126819   -1.312645
      8          8           0       -5.560466   13.147106   -1.225935
      9          9           0       -6.453337   12.263387   -1.088073
     10         10           0       -7.425045   11.373808   -0.986714
     11         11           0       -8.364564   10.575459   -0.890727
     12         12           0       -9.245851    9.668306   -0.656586
     13         13           0      -10.172652    8.808697   -0.556832
     14         14           0      -11.046074    7.970157   -0.440500
     15         15           0      -11.989590    7.013025   -0.313267
     16         16           0      -12.828827    6.308161   -0.204565
     17         17           0      -13.738159    5.484704   -0.084963
     18         18           0      -14.867334    4.690151    0.056599
     19         19           0      -15.948370    3.706194    0.198939
     20         20           0      -16.933910    2.851306    0.327418
     21         21           0      -18.133179    1.938161    0.479881
     22         22           0      -19.184422    1.026280    0.616926
     23         23           0      -20.256677    0.165522    0.754594
     24         24           0      -21.381685   -0.599142    1.036151
     25         25           0      -22.544020   -1.374917    1.198753
     26         27           0      -20.479223   -2.289588    0.991422
     27         28           0      -19.248412   -2.469342    0.854839
     28         29           0      -17.833904   -2.662986    0.697410
     29         29           0      -21.547347   -2.072604    1.107783
     30         30           0      -16.693905   -2.570179   -0.508662
     31         31           0      -15.420749   -2.499579   -0.473995
     32         32           0      -14.023296   -2.551258   -0.451284
     33         33           0      -12.549867   -2.593228   -0.425851
     34         34           0      -11.001204   -2.502769   -0.383139
     35         35           0       -9.632892   -2.450711   -0.348709
     36         36           0       -8.170166   -2.294475   -0.299959
     37         37           0       -6.899368   -2.359632   -0.336519
     38         38           0       -5.556177   -2.430334   -0.433983
     39         39           0       -4.183265   -2.556126   -0.446158
     40         40           0       -2.614071   -2.511673   -0.437048
     41         41           0       -1.178863   -2.556995   -0.439233
     42         42           0        0.328730   -2.708734   -0.454267
     43         43           0        1.961290   -2.791537   -0.336214
     44         44           0        3.574538   -2.642340   -0.295425
     45         45           0        5.296365   -2.652767   -0.273908
     46         46           0        6.776345   -2.708697   -0.261509
     47         47           0        8.487492   -2.733831   -0.242043
     48         48           0       10.105348   -2.700169   -0.216186
     49         50           0       11.655705   -2.653423   -0.189528
     50         51           0       13.273561   -2.619761   -0.163671
     51         52           0       14.809785   -2.466090   -0.123325
     52         53           0       16.331877   -2.205497   -0.069290
     53         54           0       18.016176   -2.011074   -0.021689
     54         78           0       16.980072   -0.143282    0.206937
     55         79           0       15.645708    1.990695    0.466145
     56         80           0       14.325477    4.017749    0.711665
     57         92           0       13.166399    6.152475    0.973298
 ---------------------------------------------------------------------
 Rotational constants (GHZ):      0.0073764      0.0007122      0.0006516
 Leave Link  202 at Thu Mar 22 15:23:14 2012, MaxMem=   52428800 cpu:       0.0
 (Enter /private/chem/g09B01/g09/l301.exe)

 Semi-emprical parameters in input format:
 Method=8 CoreType=1 PeptideFC=0.0114505045 RIJScale=0.5291772086
 ****
 H       
 PQN=1 NValence=1 F0ss=0.4721553327 ZetaOverlap=1.1880780000 U=-0.4188110042
 Beta=-0.2268825074 CoreKO=1.0589197790 KON=0,0,0,1.0589197790 KON=1,0,1,1.0589197790
 KON=0,1,1,1.0589197790 KON=2,1,1,1.0589197790 EISol=-0.4188110042 EHeat=0.0830298228
 Alpha=1.5252601686
 GCore=0.0085277107,1.4001425905,2.2676713595
 GCore=0.0003534810,1.4001425905,3.4015070392
 GCore=-0.0012733648,0.5600570362,3.9684248791
 ****
 He      
 PQN=1
 ****
 Li      
 PQN=2,2 NValence=1 F0ss=0.2682700754 F0sp=0.1995488369 F0pp=0.1719868429 F2pp=0.0734986508
 G1sp=0.0915058202
 ZetaOverlap=0.7023800000,0.7023800000
 U=-0.1884505406,-0.1000206389
 Beta=-0.0496115893,-0.0496115893 DDN=0,1,2.0549782300 DDN=1,1,1.7437069000
 CoreKO=1.8636987637 KON=0,0,0,1.8636987637 KON=1,0,1,2.2028435626 KON=0,1,1,1.8636987637
 KON=2,1,1,1.9123521580 EISol=-0.1884505406 EHeat=0.0612102317 Alpha=0.6615455955
 DipHyp=4.1097200106
 ****
 Be      
 PQN=2,2 NValence=2 F0ss=0.3307439286 F0sp=0.2730474877 F0pp=0.2377681353 F2pp=0.1148416419
 G1sp=0.1411174095
 ZetaOverlap=1.0042100000,1.0042100000
 U=-0.6101261915,-0.3933563635
 Beta=-0.1476255681,-0.1476255681 DDN=0,1,1.4373245000 DDN=1,1,1.2196103000
 CoreKO=1.5116668939 KON=0,0,0,1.5116668939 KON=1,0,1,1.4898058545 KON=0,1,1,1.5116668939
 KON=2,1,1,1.2999259302 EISol=-0.8895084544 EHeat=0.1226435677 Alpha=0.8834264240
 DipHyp=2.8744836189
 ****
 B       
 PQN=2,2 NValence=3 F0ss=0.3891753560 F0sp=0.3513235508 F0pp=0.3010994728 F2pp=0.1531221892
 G1sp=0.1995488369
 ZetaOverlap=1.6117090000,1.5553850000
 U=-1.2675897035,-0.8316932765
 Beta=-0.3527609639,-0.2305563375 DDN=0,1,0.9107622000 DDN=1,1,0.7874223000
 CoreKO=1.2847027108 KON=0,0,0,1.2847027108 KON=1,0,1,0.9910504183 KON=0,1,1,1.2847027108
 KON=2,1,1,0.8804590220 EISol=-2.3415665049 EHeat=0.2162517169 Alpha=1.2948484743
 DipHyp=1.8214196061
 ****
 C       
 PQN=2,2 NValence=4 F0ss=0.4494442496 F0sp=0.4215147623 F0pp=0.3768030831 F2pp=0.1898715146
 G1sp=0.2679025821
 ZetaOverlap=1.8086650000,1.6851160000
 U=-1.9120180828,-1.4557965594
 Beta=-0.5775444233,-0.2836784428 DDN=0,1,0.8236736000 DDN=1,1,0.7268015000
 CoreKO=1.1124284736 KON=0,0,0,1.1124284736 KON=1,0,1,0.8219701441 KON=0,1,1,1.1124284736
 KON=2,1,1,0.7783928119 EISol=-4.4398989268 EHeat=0.2723305520 Alpha=1.4014062429
 DipHyp=1.6472524267
 GCore=0.0007885612,1.4001425905,3.0235618126
 GCore=0.0031892455,1.4001425905,3.4959933458
 GCore=-0.0013931594,1.4001425905,3.8739385724
 GCore=-0.0000875022,1.4001425905,5.0077742521
 ****
 N       
 PQN=2,2 NValence=5 F0ss=0.4994233321 F0sp=0.4652464595 F0pp=0.4429518688 F2pp=0.2128398429
 G1sp=0.3461786452
 ZetaOverlap=2.3154100000,2.1579400000
 U=-2.6408065231,-2.1008700363
 Beta=-0.7459785987,-0.6702586716 DDN=0,1,0.6433247000 DDN=1,1,0.5675528000
 CoreKO=1.0011038171 KON=0,0,0,1.0011038171 KON=1,0,1,0.6393175158 KON=0,1,1,1.0011038171
 KON=2,1,1,0.6342362236 EISol=-7.4383480104 EHeat=0.1800769640 Alpha=1.5596365784
 DipHyp=1.2865753779
 GCore=0.0017535850,1.4001425905,2.8345891993
 GCore=0.0020106747,1.4001425905,3.9684248791
 GCore=-0.0004032044,0.5600570362,4.5353427189
 ****
 O       
 PQN=2,2 NValence=6 F0ss=0.5666745976 F0sp=0.5321302318 F0pp=0.4958708974 F2pp=0.2358081713
 G1sp=0.4343770262
 ZetaOverlap=3.1080320000,2.5240390000
 U=-3.5951865036,-2.8760896690
 Beta=-1.0757546603,-1.0757546603 DDN=0,1,0.4988896000 DDN=1,1,0.4852322000
 CoreKO=0.8822957477 KON=0,0,0,0.8822957477 KON=1,0,1,0.5019543089 KON=0,1,1,0.8822957477
 KON=2,1,1,0.5515584117 EISol=-11.6164441184 EHeat=0.0949133088 Alpha=2.3576807890
 DipHyp=0.9977217969
 GCore=0.0195117322,1.4001425905,1.6023328031
 GCore=0.0056550009,1.9601996266,2.7307884326
 ****
 F       
 PQN=2,2 NValence=7 F0ss=0.6217985857 F0sp=0.6339258631 F0pp=0.5699820369 F2pp=0.2756199405
 G1sp=0.5324977250
 ZetaOverlap=3.7700820000,2.4946700000
 U=-5.0017882111,-3.8546325148
 Beta=-2.5573957340,-1.0261278935 DDN=0,1,0.4145203000 DDN=1,1,0.4909446000
 CoreKO=0.8040780264 KON=0,0,0,0.8040780264 KON=1,0,1,0.4136062561 KON=0,1,1,0.8040780264
 KON=2,1,1,0.5291366448 EISol=-17.7238535707 EHeat=0.0301031314 Alpha=2.9198940016
 DipHyp=0.8289929046
 GCore=0.0168114571,1.3441368868,1.7574453036
 GCore=0.0002504923,1.2881311832,3.1369453806
 ****
 Ne      
 PQN=2,2
 ****
 Na      
 PQN=3,3 NValence=1
 ****
 Mg      
 PQN=3,3 NValence=2 F0ss=0.2756685514 F0sp=0.2332081085 F0pp=0.1648291798 F2pp=0.0666344709
 G1sp=0.0539448485
 ZetaOverlap=1.2233927000,1.0203079800
 U=-0.5501224490,-0.4249064487
 Beta=-0.0462947256,-0.0286044269 DDN=0,1,1.7501211500 DDN=1,1,1.6400146700
 CoreKO=1.8136801322 KON=0,0,0,1.8136801322 KON=1,0,1,2.5053569542 KON=0,1,1,1.8136801322
 KON=2,1,1,1.8910632586 EISol=-0.8245763466 EHeat=0.0557760508 Alpha=0.8839894633
 DipHyp=3.5000409280
 GCore=0.1771000257,1.2024346859,1.5115843937
 GCore=-0.0003929305,0.8290353769,2.7873457248
 GCore=-0.0004238202,0.7320419243,4.5845519433
 ****
 Al      
 PQN=3,3 NValence=3 F0ss=0.2973020425 F0sp=0.2436480274 F0pp=0.2055512267 F2pp=0.0888108697
 G1sp=0.0771735833
 ZetaOverlap=1.5165930000,1.3063470000,1.0000000000
 U=-0.8949778198,-0.6748515656
 Beta=-0.1421030999,-0.0851535523 DDN=0,1,1.4040443000 DDN=1,1,1.2809154000
 CoreKO=1.6817055993 KON=0,0,0,1.6817055993 KON=1,0,1,1.9009751622 KON=0,1,1,1.6817055993
 KON=2,1,1,1.4586479151 EISol=-1.7059336356 EHeat=0.1266753793 Alpha=1.0459642620
 DipHyp=2.8079270482
 GCore=0.0062501545,3.4702374488,3.8746831245
 ****
 Si      
 PQN=3,3 NValence=4 F0ss=0.3608783754 F0sp=0.3072243603 F0pp=0.2497729150 F2pp=0.1179040856
 G1sp=0.1455273286
 ZetaOverlap=1.8306970000,1.2849530000,1.0000000000
 U=-1.2477727033,-1.0633325063
 Beta=-0.1390907577,-0.0723271925 DDN=0,1,1.1631107000 DDN=1,1,1.3022422000
 CoreKO=1.3854379938 KON=0,0,0,1.3854379938 KON=1,0,1,1.3055467721 KON=0,1,1,1.3854379938
 KON=2,1,1,1.3469442952 EISol=-2.9032607237 EHeat=0.1727304613 Alpha=1.1947847684
 DipHyp=2.3260875705
 GCore=0.0173615401,2.5202566628,1.7223965530
 GCore=0.0042718417,1.4001425905,3.7710788893
 GCore=0.0014437162,1.4001425905,5.6514338703
 ****
 P       
 PQN=3,3 NValence=5 F0ss=0.4248223853 F0sp=0.1924727176 F0pp=0.2755327833 F2pp=0.0872706136
 G1sp=0.0859094125
 ZetaOverlap=1.9812800000,1.8751500000,1.0000000000
 U=-1.5445691118,-1.2506055985
 Beta=-0.2334965407,-0.2422041096 DDN=0,1,1.0452022000 DDN=1,1,0.8923660000
 CoreKO=1.1769025807 KON=0,0,0,1.1769025807 KON=1,0,1,1.5265688625 KON=0,1,1,1.1769025807
 KON=2,1,1,1.1397689552 EISol=-4.5729697592 EHeat=0.1204284617 Alpha=1.2993004421
 DipHyp=2.0902841372
 GCore=-0.0022102630,1.6801711085,2.7860667014
 GCore=0.0012826706,1.9601996266,3.3624917535
 GCore=0.0023118627,2.5202566628,5.6816052377
 ****
 S       
 PQN=3,3 NValence=6 F0ss=0.4331396397 F0sp=0.3183640731 F0pp=0.3136271218 F2pp=0.3456917167
 G1sp=0.2791629797
 ZetaOverlap=2.3665150000,1.6672630000,1.0000000000
 U=-2.0834683120,-1.7903186861
 Beta=-0.1440781557,-0.2905136336 DDN=0,1,0.9004265000 DDN=1,1,1.0036329000
 CoreKO=1.1543033468 KON=0,0,0,1.1543033468 KON=1,0,1,0.8464368816 KON=0,1,1,1.1543033468
 KON=2,1,1,0.7746001785 EISol=-7.0460287497 EHeat=0.1058151363 Alpha=1.3026480172
 DipHyp=1.8007493954
 GCore=-0.0353616377,1.2863644833,1.4563457902
 GCore=-0.0008238398,1.6425719595,2.8408498620
 GCore=0.0008565489,3.7964407093,3.7967867236
 ****
 Cl      
 PQN=3,3 NValence=7 F0ss=0.5523423607 F0sp=0.4836211222 F0pp=0.3826829751 F2pp=0.2036525116
 G1sp=0.2668001024
 ZetaOverlap=3.6313760000,2.0767990000,1.0000000000
 U=-4.1017372939,-2.8164722306
 Beta=-0.9038375309,-0.5379078137 DDN=0,1,0.5406286000 DDN=1,1,0.8057208000
 CoreKO=0.9051895422 KON=0,0,0,0.9051895422 KON=1,0,1,0.6499246087 KON=0,1,1,0.9051895422
 KON=2,1,1,0.8152126507 EISol=-13.6780412532 EHeat=0.0461985061 Alpha=1.5448630091
 DipHyp=1.0811949943
 GCore=0.0065448145,1.1201140724,2.4566439728
 GCore=0.0018867133,1.1201140724,3.9684248791
 ****
 Ar      
 PQN=3,3
 ****
 K       
 PQN=4,4 NValence=1
 ****
 Ca      
 PQN=4,4 NValence=2
 ****
 Sc      
 PQN=4,4,3 NValence=3
 ****
 Ti      
 PQN=4,4,3 NValence=4
 ****
 V       
 PQN=4,4,3 NValence=5
 ****
 Cr      
 PQN=4,4,3 NValence=6 F0ss=0.2204959524 F0sp=0.1525097004 F0pp=0.1469973016
 F2pp=0.2296832837 G1sp=0.1102479762
 ZetaOverlap=1.5000000000,1.5000000000,2.8845490000
 U=-0.6437389252,-0.4606060855,-1.6215613372
 Beta=-0.0036749325,-0.0036749325,-0.3225354523 DDN=0,1,1.7320508000 DDN=1,1,1.4142136000
 DDN=0,2,0.6546097715 DDN=1,2,0.3615830081 DDN=2,2,0.4902719844 CoreKO=2.2674996553
 KON=0,0,0,2.2674996553 KON=1,0,1,1.8441120453 KON=0,1,1,2.2674996553 KON=2,1,1,1.1199071104
 EISol=-4.9544996569 EHeat=0.1513921378 Alpha=1.6236781334 DipHyp=3.4639023072
 ****
 Mn      
 PQN=4,4,3 NValence=7
 ****
 Co      
 PQN=4,4,3 NValence=9
 ****
 Ni      
 PQN=4,4,3 NValence=10
 ****
 Cu      
 PQN=4,4,3 NValence=11
 ****
 Zn      
 PQN=4,4 NValence=2 F0ss=0.4336420397 F0sp=0.4109316181 F0pp=0.4797139340 F2pp=0.0565755864
 G1sp=0.0534268308
 ZetaOverlap=1.9542990000,1.3723650000,1.0000000000
 U=-0.7732061004,-0.6488304340
 Beta=-0.0734041683,-0.1748576634 DDN=0,1,1.3581113000 DDN=1,1,1.5457406000
 CoreKO=1.1529660860 KON=0,0,0,1.1529660860 KON=1,0,1,2.1575689893 KON=0,1,1,1.1529660860
 KON=2,1,1,1.9075487426 EISol=-1.1127701610 EHeat=0.0496725572 Alpha=0.7855969043
 DipHyp=2.7160663333
 ****
 Ga      
 PQN=4,4 NValence=3
 ****
 Ge      
 PQN=4,4 NValence=4 F0ss=0.3736893740 F0sp=0.2993038885 F0pp=0.2353342765 F2pp=0.0615851320
 G1sp=0.1033126068
 ZetaOverlap=1.2196310000,1.9827940000,1.0000000000
 U=-1.2562348602,-1.0525304831
 Beta=-0.1601023683,-0.0364219257 DDN=0,1,1.2472095000 DDN=1,1,1.0698642000
 CoreKO=1.3379415609 KON=0,0,0,1.3379415609 KON=1,0,1,1.5721737818 KON=0,1,1,1.3379415609
 KON=2,1,1,1.4344683229 EISol=-2.8924835798 EHeat=0.1426273299 Alpha=1.1305368343
 DipHyp=2.4942754939
 ****
 As      
 PQN=4,4 NValence=5
 ****
 Se      
 PQN=4,4 NValence=6
 ****
 Br      
 PQN=4,4 NValence=7 F0ss=0.5525790080 F0sp=0.4790157850 F0pp=0.3795614433 F2pp=0.2177244254
 G1sp=0.2707545099
 ZetaOverlap=3.0641330000,2.0383330000,1.0000000000
 U=-3.8460397140,-2.7536288630
 Beta=-0.7129325028,-0.3291708737 DDN=0,1,0.8458104000 DDN=1,1,1.0407133000
 CoreKO=0.9048019832 KON=0,0,0,0.9048019832 KON=1,0,1,0.8299308933 KON=0,1,1,0.9048019832
 KON=2,1,1,0.9420533560 EISol=-12.9473094976 EHeat=0.0426129028 Alpha=1.3634494201
 DipHyp=1.6915234796
 GCore=0.0046310172,1.1201140724,2.8345891993
 GCore=0.0017755994,1.1201140724,4.3463701056
 ****
 Kr      
 PQN=4,4
 ****
 Rb      
 PQN=5,5 NValence=1
 ****
 Sr      
 PQN=5,5 NValence=2
 ****
 Y       
 PQN=5,5,4 NValence=3
 ****
 Zr      
 PQN=5,5,4 NValence=4
 ****
 Nb      
 PQN=5,5,4 NValence=5
 ****
 Mo      
 PQN=5,5,4 NValence=6
 ****
 Tc      
 PQN=5,5,4 NValence=7
 ****
 Ru      
 PQN=5,5,4 NValence=8
 ****
 Rh      
 PQN=5,5,4 NValence=9
 ****
 Pd      
 PQN=5,5,4 NValence=10
 ****
 Ag      
 PQN=5,5,4 NValence=11
 ****
 Cd      
 PQN=5,5,4 NValence=2
 ****
 Sn      
 PQN=5,5 NValence=4 F0ss=0.3601433889 F0sp=0.3050194008 F0pp=0.2486704352 F2pp=0.1224977513
 G1sp=0.1433223690
 ZetaOverlap=2.5993760000,1.6959620000,1.0000000000
 U=-1.3044812856,-1.0325691683
 Beta=-0.1188840677,-0.0947357184 DDN=0,1,1.1528229000 DDN=1,1,1.5148019000
 CoreKO=1.3882653264 KON=0,0,0,1.3882653264 KON=1,0,1,1.3076083190 KON=0,1,1,1.3882653264
 KON=2,1,1,1.4702617507 EISol=-2.9652572766 EHeat=0.1150580248 Alpha=0.9720646648
 DipHyp=2.3055131542
 ****
 Sb      
 PQN=5,5 NValence=5
 ****
 Te      
 PQN=5,5 NValence=6
 ****
 I       
 PQN=5,5 NValence=7 F0ss=0.5527263397 F0sp=0.4798196985 F0pp=0.3794486070 F2pp=0.1889057729
 G1sp=0.2708111443
 ZetaOverlap=2.1028580000,2.1611530000,1.0000000000
 U=-3.8068502334,-2.7352521791
 Beta=-0.3102865714,-0.2323808680 DDN=0,1,1.4878778000 DDN=1,1,1.1887388000
 CoreKO=0.9045608683 KON=0,0,0,0.9045608683 KON=1,0,1,1.1117230529 KON=0,1,1,0.9045608683
 KON=2,1,1,1.0794997598 EISol=-12.7470285039 EHeat=0.0406639282 Alpha=1.2168027737
 DipHyp=2.9755844022
 GCore=0.0003028547,0.6440655916,3.4015070392
 GCore=0.0010907214,0.8400855543,4.2329865377
 ****
 Xe      
 PQN=5,5 F0ss=0.3307439286 F0sp=0.4115924444 F0pp=0.3608783754 F2pp=0.2710262748
 G1sp=0.2645951429
 ZetaOverlap=2.2729610000,1.1694980000
 U=-3.6750447648,-2.5724527778
 Beta=-0.2724760724,-0.2277275214 DDN=0,1,1.0775919000 DDN=1,1,2.5794150000
 CoreKO=1.5116668939 KON=0,0,0,1.5116668939 KON=1,0,1,0.9547456300 KON=0,1,1,1.5116668939
 KON=2,1,1,1.4718336663 EISol=-7.0193456011 Alpha=1.1680634361 DipHyp=2.1550598104
 ****
 Pt      
 PQN=6,6,5 NValence=10
 ****
 Au      
 PQN=6,6,5 NValence=11
 ****
 Hg      
 PQN=6,6,5 NValence=2 F0ss=0.3968927143 F0sp=0.3417687262 F0pp=0.5059157130
 F2pp=0.1224977513 G1sp=0.1433223690
 ZetaOverlap=2.0364130000,1.9557660000,1.0000000000
 U=-0.7328395389,-0.4083169771
 Beta=-0.0333925318,-0.1804165501 DDN=0,1,1.8750829000 DDN=1,1,1.5424241000
 DDN=0,2,1.6848470075 DDN=1,2,1.2531731158 DDN=2,2,2.1712405934 CoreKO=1.2597222212
 KON=0,0,0,1.2597222212 KON=1,0,1,1.7084642444 KON=0,1,1,1.2597222212 KON=2,1,1,1.4878299970
 EISol=-1.0687863634 EHeat=0.0234100053 Alpha=0.7856873936 DipHyp=3.7499500497
 ****
 U       
 PQN=0,0,-1
 ****
 
 Standard basis: VSTO-6G (5D, 7F)
 Atom     2 atomic number   2 has no semi-empirical parameters.
 Error termination via Lnk1e in /private/chem/g09B01/g09/l301.exe at Thu Mar 22 15:23:14 2012.
 Job cpu time:  0 days  0 hours  0 minutes  0.6 seconds.
 File lengths (MBytes):  RWF=      5 Int=      0 D2E=      0 Chk=      1 Scr=      1
Error: segmentation violation
   rax 0000000000000000, rbx ffffffffffffffff, rcx ffffffffffffffff
   rdx 0000000000000606, rsp 00007ffff0d90f28, rbp 00007ffff0d91500
   rsi 000000000000000b, rdi 0000000000000606, r8  00002b19d5d20b90
   r9  0000000000000000, r10 0000000000000000, r11 0000000000000206
   r12 0000000000000000, r13 0000000000000000, r14 00007ffff0d91548
   r15 0000000000000000
  --- traceback not available
 
        *=*=*=*=*=*=*=*=*=*=*=*=*
        * xrung09: Leaving g09  *
        *=*=*=*=*=*=*=*=*=*=*=*=*
 
 
 Scratch directory report:  /var/spool/scratch/freudy/g09/atoms
 ========================= 
 total 8
 -rw-r--r-- 1 freudy qnt 3496 Mar 22 15:23 atoms.inp
 -rw-r--r-- 1 freudy qnt   22 Mar 22 15:23 home
 
 Thu Mar 22 15:23:14 IST 2012
 quanta04
 0.563u 0.124s 0:00.37 183.7%	0+0k 0+0io 0pf+0w
 
 ****** xrung09 messages ******
 Job atoms is run from:
 /var/spool/scratch/freudy/g09/atoms
 0.551u 0.105s 0:00.28 232.1%	0+0k 0+0io 0pf+0w
